<?xml version="1.0"?>
<VTKFile type="UnstructuredGrid" version="0.1">
<UnstructuredGrid>
<FieldData>
<DataArray Name="TIME" type="Float64" format="ascii" NumberOfTuples="1">
0.000000e+00
</DataArray>
</FieldData>
<FieldData>
<DataArray Name="CYCLE" type="Int32" format="ascii" NumberOfTuples="1">
0
</DataArray>
</FieldData>
<Piece NumberOfPoints="9698" NumberOfCells="53275">
<Points>
<DataArray NumberOfComponents="3" type="Float64" format="ascii">
1.000000e+01 1.000000e+01 -1.000000e+01
1.000000e+01 1.000000e+01 1.000000e+01
1.000000e+01 -1.000000e+01 -1.000000e+01
1.000000e+01 -1.000000e+01 1.000000e+01
-1.000000e+01 1.000000e+01 -1.000000e+01
-1.000000e+01 1.000000e+01 1.000000e+01
-1.000000e+01 -1.000000e+01 -1.000000e+01
-1.000000e+01 -1.000000e+01 1.000000e+01
1.102182e-15 -2.699568e-31 -1.800000e+01
1.102182e-15 -2.699568e-31 1.800000e+01
-1.000000e+01 -8.000000e+00 1.000000e+01
-1.000000e+01 -6.000000e+00 1.000000e+01
-1.000000e+01 -4.000000e+00 1.000000e+01
-1.000000e+01 -2.000000e+00 1.000000e+01
-1.000000e+01 0.000000e+00 1.000000e+01
-1.000000e+01 2.000000e+00 1.000000e+01
-1.000000e+01 4.000000e+00 1.000000e+01
-1.000000e+01 6.000000e+00 1.000000e+01
-1.000000e+01 8.000000e+00 1.000000e+01
-8.000000e+00 1.000000e+01 1.000000e+01
-6.000000e+00 1.000000e+01 1.000000e+01
-4.000000e+00 1.000000e+01 1.000000e+01
-2.000000e+00 1.000000e+01 1.000000e+01
0.000000e+00 1.000000e+01 1.000000e+01
2.000000e+00 1.000000e+01 1.000000e+01
4.000000e+00 1.000000e+01 1.000000e+01
6.000000e+00 1.000000e+01 1.000000e+01
8.000000e+00 1.000000e+01 1.000000e+01
1.000000e+01 -8.000000e+00 1.000000e+01
1.000000e+01 -6.000000e+00 1.000000e+01
1.000000e+01 -4.000000e+00 1.000000e+01
1.000000e+01 -2.000000e+00 1.000000e+01
1.000000e+01 0.000000e+00 1.000000e+01
1.000000e+01 2.000000e+00 1.000000e+01
1.000000e+01 4.000000e+00 1.000000e+01
1.000000e+01 6.000000e+00 1.000000e+01
1.000000e+01 8.000000e+00 1.000000e+01
-8.000000e+00 -1.000000e+01 1.000000e+01
-6.000000e+00 -1.000000e+01 1.000000e+01
-4.000000e+00 -1.000000e+01 1.000000e+01
-2.000000e+00 -1.000000e+01 1.000000e+01
0.000000e+00 -1.000000e+01 1.000000e+01
2.000000e+00 -1.000000e+01 1.000000e+01
4.000000e+00 -1.000000e+01 1.000000e+01
6.000000e+00 -1.000000e+01 1.000000e+01
8.000000e+00 -1.000000e+01 1.000000e+01
-1.000000e+01 -8.000000e+00 -1.000000e+01
-1.000000e+01 -6.000000e+00 -1.000000e+01
-1.000000e+01 -4.000000e+00 -1.000000e+01
-1.000000e+01 -2.000000e+00 -1.000000e+01
-1.000000e+01 0.000000e+00 -1.000000e+01
-1.000000e+01 2.000000e+00 -1.000000e+01
-1.000000e+01 4.000000e+00 -1.000000e+01
-1.000000e+01 6.000000e+00 -1.000000e+01
-1.000000e+01 8.000000e+00 -1.000000e+01
-8.000000e+00 1.000000e+01 -1.000000e+01
-6.000000e+00 1.000000e+01 -1.000000e+01
-4.000000e+00 1.000000e+01 -1.000000e+01
-2.000000e+00 1.000000e+01 -1.000000e+01
0.000000e+00 1.000000e+01 -1.000000e+01
2.000000e+00 1.000000e+01 -1.000000e+01
4.000000e+00 1.000000e+01 -1.000000e+01
6.000000e+00 1.000000e+01 -1.000000e+01
8.000000e+00 1.000000e+01 -1.000000e+01
1.000000e+01 -8.000000e+00 -1.000000e+01
1.000000e+01 -6.000000e+00 -1.000000e+01
1.000000e+01 -4.000000e+00 -1.000000e+01
1.000000e+01 -2.000000e+00 -1.000000e+01
1.000000e+01 0.000000e+00 -1.000000e+01
1.000000e+01 2.000000e+00 -1.000000e+01
1.000000e+01 4.000000e+00 -1.000000e+01
1.000000e+01 6.000000e+00 -1.000000e+01
1.000000e+01 8.000000e+00 -1.000000e+01
-8.000000e+00 -1.000000e+01 -1.000000e+01
-6.000000e+00 -1.000000e+01 -1.000000e+01
-4.000000e+00 -1.000000e+01 -1.000000e+01
-2.000000e+00 -1.000000e+01 -1.000000e+01
0.000000e+00 -1.000000e+01 -1.000000e+01
2.000000e+00 -1.000000e+01 -1.000000e+01
4.000000e+00 -1.000000e+01 -1.000000e+01
6.000000e+00 -1.000000e+01 -1.000000e+01
8.000000e+00 -1.000000e+01 -1.000000e+01
1.000000e+01 1.000000e+01 -8.000000e+00
1.000000e+01 1.000000e+01 -6.000000e+00
1.000000e+01 1.000000e+01 -4.000000e+00
1.000000e+01 1.000000e+01 -2.000000e+00
1.000000e+01 1.000000e+01 0.000000e+00
1.000000e+01 1.000000e+01 2.000000e+00
1.000000e+01 1.000000e+01 4.000000e+00
1.000000e+01 1.000000e+01 6.000000e+00
1.000000e+01 1.000000e+01 8.000000e+00
-1.000000e+01 1.000000e+01 -8.000000e+00
-1.000000e+01 1.000000e+01 -6.000000e+00
-1.000000e+01 1.000000e+01 -4.000000e+00
-1.000000e+01 1.000000e+01 -2.000000e+00
-1.000000e+01 1.000000e+01 0.000000e+00
-1.000000e+01 1.000000e+01 2.000000e+00
-1.000000e+01 1.000000e+01 4.000000e+00
-1.000000e+01 1.000000e+01 6.000000e+00
-1.000000e+01 1.000000e+01 8.000000e+00
1.000000e+01 -1.000000e+01 -8.000000e+00
1.000000e+01 -1.000000e+01 -6.000000e+00
1.000000e+01 -1.000000e+01 -4.000000e+00
1.000000e+01 -1.000000e+01 -2.000000e+00
1.000000e+01 -1.000000e+01 0.000000e+00
1.000000e+01 -1.000000e+01 2.000000e+00
1.000000e+01 -1.000000e+01 4.000000e+00
1.000000e+01 -1.000000e+01 6.000000e+00
1.000000e+01 -1.000000e+01 8.000000e+00
-1.000000e+01 -1.000000e+01 -8.000000e+00
-1.000000e+01 -1.000000e+01 -6.000000e+00
-1.000000e+01 -1.000000e+01 -4.000000e+00
-1.000000e+01 -1.000000e+01 -2.000000e+00
-1.000000e+01 -1.000000e+01 0.000000e+00
-1.000000e+01 -1.000000e+01 2.000000e+00
-1.000000e+01 -1.000000e+01 4.000000e+00
-1.000000e+01 -1.000000e+01 6.000000e+00
-1.000000e+01 -1.000000e+01 8.000000e+00
2.015361e+00 -4.936210e-16 -1.788682e+01
4.005377e+00 -9.810344e-16 -1.754870e+01
5.945023e+00 -1.456111e-15 -1.698990e+01
7.809907e+00 -1.912876e-15 -1.621744e+01
9.576577e+00 -2.345585e-15 -1.524104e+01
1.122282e+01 -2.748797e-15 -1.407297e+01
1.272792e+01 -3.117442e-15 -1.272792e+01
1.407297e+01 -3.446883e-15 -1.122282e+01
1.524104e+01 -3.732977e-15 -9.576577e+00
1.621744e+01 -3.972127e-15 -7.809907e+00
1.698990e+01 -4.161325e-15 -5.945023e+00
1.754870e+01 -4.298192e-15 -4.005377e+00
1.788682e+01 -4.381007e-15 -2.015361e+00
1.800000e+01 -4.408729e-15 2.194122e-13
1.788682e+01 -4.381007e-15 2.015361e+00
1.754870e+01 -4.298192e-15 4.005377e+00
1.698990e+01 -4.161325e-15 5.945023e+00
1.621744e+01 -3.972127e-15 7.809907e+00
1.524104e+01 -3.732977e-15 9.576577e+00
1.407297e+01 -3.446883e-15 1.122282e+01
1.272792e+01 -3.117442e-15 1.272792e+01
1.122282e+01 -2.748797e-15 1.407297e+01
9.576577e+00 -2.345585e-15 1.524104e+01
7.809907e+00 -1.912876e-15 1.621744e+01
5.945023e+00 -1.456111e-15 1.698990e+01
4.005377e+00 -9.810344e-16 1.754870e+01
2.015361e+00 -4.936210e-16 1.788682e+01
-8.318076e+00 -6.697851e+00 1.000000e+01
-8.220704e+00 -4.916596e+00 1.000000e+01
-8.254748e+00 -2.956175e+00 1.000000e+01
-8.270965e+00 -9.922366e-01 1.000000e+01
-8.298284e+00 9.478028e-01 1.000000e+01
-8.316291e+00 2.855562e+00 1.000000e+01
-8.300725e+00 4.721281e+00 1.000000e+01
-8.246605e+00 6.534817e+00 1.000000e+01
-8.156568e+00 8.298449e+00 1.000000e+01
-6.225649e+00 8.492533e+00 1.000000e+01
-4.253588e+00 8.613971e+00 1.000000e+01
-2.273343e+00 8.679620e+00 1.000000e+01
-2.984812e-01 8.730557e+00 1.000000e+01
2.042208e+00 8.635548e+00 1.000000e+01
3.854168e+00 8.146858e+00 1.000000e+01
5.475372e+00 8.501079e+00 1.000000e+01
7.428648e+00 8.498739e+00 1.000000e+01
8.146871e+00 -7.143494e+00 1.000000e+01
8.130276e+00 -2.976870e+00 1.000000e+01
8.251098e+00 1.019387e+00 1.000000e+01
8.294635e+00 4.886854e+00 1.000000e+01
-7.234899e+00 -8.224925e+00 1.000000e+01
-3.001289e+00 -8.166039e+00 1.000000e+01
1.094478e+00 -8.275057e+00 1.000000e+01
4.801486e+00 -8.643243e+00 1.000000e+01
6.388601e+00 -8.031691e+00 1.000000e+01
8.103251e+00 -5.008252e+00 1.000000e+01
8.196094e+00 -9.684078e-01 1.000000e+01
8.277471e+00 2.979408e+00 1.000000e+01
8.222006e+00 6.746401e+00 1.000000e+01
-5.100666e+00 -8.125576e+00 1.000000e+01
-9.478654e-01 -8.213791e+00 1.000000e+01
3.064575e+00 -8.387570e+00 1.000000e+01
-6.519075e+00 -3.938011e+00 1.000000e+01
-6.517961e+00 -1.975984e+00 1.000000e+01
-6.562890e+00 -6.374949e-02 1.000000e+01
-6.628959e+00 1.782140e+00 1.000000e+01
-6.638423e+00 3.572468e+00 1.000000e+01
-6.552747e+00 5.282220e+00 1.000000e+01
-6.404358e+00 6.909500e+00 1.000000e+01
4.456295e+00 -6.959850e+00 1.000000e+01
-4.494301e+00 7.170212e+00 1.000000e+01
-2.561574e+00 7.309531e+00 1.000000e+01
-6.648185e-01 7.381475e+00 1.000000e+01
1.060407e+00 7.523026e+00 1.000000e+01
4.972422e+00 6.814759e+00 1.000000e+01
6.546296e+00 7.249101e+00 1.000000e+01
6.555562e+00 5.703931e+00 1.000000e+01
6.513478e+00 2.070626e+00 1.000000e+01
-3.994692e+00 -6.348343e+00 1.000000e+01
6.311381e+00 -1.883046e+00 1.000000e+01
6.150732e+00 -3.917139e+00 1.000000e+01
-6.315558e+00 -6.164979e+00 1.000000e+01
6.206567e+00 -5.961288e+00 1.000000e+01
6.443854e+00 1.110038e-01 1.000000e+01
2.127577e-01 -6.544422e+00 1.000000e+01
6.524586e+00 3.959194e+00 1.000000e+01
-1.908723e+00 -6.383527e+00 1.000000e+01
2.365177e+00 -6.638469e+00 1.000000e+01
-4.879645e+00 -4.754313e+00 1.000000e+01
-4.786844e+00 -1.049568e+00 1.000000e+01
-4.890447e+00 7.799160e-01 1.000000e+01
-5.035895e+00 2.493197e+00 1.000000e+01
-4.976195e+00 4.149513e+00 1.000000e+01
-4.738056e+00 5.665331e+00 1.000000e+01
-2.871033e+00 5.893271e+00 1.000000e+01
-9.987440e-01 5.985271e+00 1.000000e+01
9.528503e-01 6.081465e+00 1.000000e+01
2.908011e+00 6.628512e+00 1.000000e+01
4.694855e+00 5.087009e+00 1.000000e+01
4.316259e+00 -2.700388e+00 1.000000e+01
-4.742677e+00 -2.975488e+00 1.000000e+01
3.895658e+00 -4.890059e+00 1.000000e+01
-2.886851e+00 -4.314029e+00 1.000000e+01
1.457704e+00 -4.988633e+00 1.000000e+01
4.579125e+00 -7.171655e-01 1.000000e+01
4.733443e+00 3.204242e+00 1.000000e+01
-3.087008e+00 -1.478498e-01 1.000000e+01
-3.287917e+00 1.610464e+00 1.000000e+01
-3.634876e+00 3.113785e+00 1.000000e+01
-3.203618e+00 4.434589e+00 1.000000e+01
-1.474885e+00 4.543471e+00 1.000000e+01
4.178478e-01 4.667886e+00 1.000000e+01
2.636730e+00 4.504478e+00 1.000000e+01
2.297216e+00 -3.230338e+00 1.000000e+01
-6.941909e-01 -4.825009e+00 1.000000e+01
4.741365e+00 1.240419e+00 1.000000e+01
5.004619e-01 -3.563641e+00 1.000000e+01
3.092345e+00 2.384370e+00 1.000000e+01
-1.174490e+00 -2.927357e+00 1.000000e+01
2.596433e+00 -1.353910e+00 1.000000e+01
2.947406e+00 4.475048e-01 1.000000e+01
[...]
<PointData>
<DataArray Name="m" type="Float64" NumberOfComponents="3" format="ascii">
-1.674977e-02 -1.844253e-02 9.996896e-01
2.066412e-02 1.860945e-02 9.996133e-01
-1.618598e-02 1.783817e-02 9.997098e-01
2.078959e-02 -1.883707e-02 9.996064e-01
2.029500e-02 -1.847002e-02 9.996234e-01
-1.681420e-02 1.873624e-02 9.996831e-01
2.030801e-02 1.861341e-02 9.996205e-01
-1.632663e-02 -1.866830e-02 9.996924e-01
0.000000e+00 0.000000e+00 0.000000e+00
0.000000e+00 0.000000e+00 0.000000e+00
-1.725380e-02 -1.720944e-02 9.997030e-01
-1.898549e-02 -1.309384e-02 9.997340e-01
-2.057756e-02 -8.575720e-03 9.997515e-01
-2.179503e-02 -4.325755e-03 9.997531e-01
-2.200163e-02 -9.880729e-05 9.997579e-01
-2.185967e-02 4.512383e-03 9.997509e-01
-2.122320e-02 8.827898e-03 9.997358e-01
-1.965157e-02 1.318145e-02 9.997200e-01
-1.795900e-02 1.711328e-02 9.996923e-01
-1.522645e-02 1.975879e-02 9.996888e-01
-1.128860e-02 2.138075e-02 9.997077e-01
-6.910324e-03 2.312977e-02 9.997086e-01
-2.532984e-03 2.399212e-02 9.997090e-01
1.935418e-03 2.433897e-02 9.997019e-01
6.371367e-03 2.417226e-02 9.996875e-01
1.076824e-02 2.312829e-02 9.996745e-01
1.509018e-02 2.153379e-02 9.996542e-01
1.952730e-02 1.990471e-02 9.996111e-01
2.191606e-02 -1.715182e-02 9.996127e-01
2.366613e-02 -1.309739e-02 9.996341e-01
2.485771e-02 -8.605317e-03 9.996539e-01
2.568469e-02 -4.251697e-03 9.996610e-01
2.610459e-02 8.091723e-06 9.996592e-01
2.576565e-02 4.168962e-03 9.996593e-01
2.513331e-02 8.685258e-03 9.996464e-01
2.347917e-02 1.331384e-02 9.996357e-01
2.164687e-02 1.727617e-02 9.996164e-01
-1.492352e-02 -1.969309e-02 9.996947e-01
-1.087851e-02 -2.113937e-02 9.997174e-01
-6.616738e-03 -2.268186e-02 9.997208e-01
-2.265375e-03 -2.390265e-02 9.997118e-01
2.045535e-03 -2.389406e-02 9.997124e-01
6.397410e-03 -2.387824e-02 9.996944e-01
1.081736e-02 -2.305919e-02 9.996756e-01
1.516912e-02 -2.154770e-02 9.996527e-01
1.941713e-02 -1.987018e-02 9.996140e-01
2.144438e-02 1.719194e-02 9.996222e-01
2.277041e-02 1.296057e-02 9.996567e-01
2.424458e-02 8.662052e-03 9.996685e-01
2.509777e-02 4.183303e-03 9.996762e-01
2.540750e-02 -1.515476e-04 9.996772e-01
2.502552e-02 -4.334748e-03 9.996774e-01
2.368160e-02 -8.295659e-03 9.996851e-01
2.275113e-02 -1.254600e-02 9.996625e-01
2.144591e-02 -1.735497e-02 9.996194e-01
1.897116e-02 -1.937668e-02 9.996322e-01
1.465209e-02 -2.087069e-02 9.996748e-01
1.051792e-02 -2.196938e-02 9.997033e-01
6.297258e-03 -2.258612e-02 9.997250e-01
1.981228e-03 -2.254883e-02 9.997438e-01
-2.006737e-03 -2.192732e-02 9.997575e-01
-6.229635e-03 -2.153999e-02 9.997486e-01
-1.062914e-02 -2.070070e-02 9.997292e-01
-1.482061e-02 -1.931270e-02 9.997036e-01
-1.704364e-02 1.664295e-02 9.997162e-01
-1.850903e-02 1.308456e-02 9.997430e-01
-1.956872e-02 8.618201e-03 9.997714e-01
-2.036191e-02 4.352988e-03 9.997832e-01
-2.083866e-02 7.977457e-05 9.997829e-01
-2.049521e-02 -4.216852e-03 9.997811e-01
-1.983272e-02 -8.293757e-03 9.997689e-01
-1.896382e-02 -1.260925e-02 9.997407e-01
-1.770781e-02 -1.717541e-02 9.996957e-01
1.886238e-02 1.946377e-02 9.996326e-01
1.490605e-02 2.072437e-02 9.996741e-01
1.083424e-02 2.179439e-02 9.997038e-01
6.535905e-03 2.302048e-02 9.997136e-01
2.291434e-03 2.385400e-02 9.997128e-01
-2.102727e-03 2.373138e-02 9.997162e-01
-6.634584e-03 2.289528e-02 9.997159e-01
-1.080839e-02 2.095882e-02 9.997219e-01
-1.520148e-02 1.897702e-02 9.997044e-01
-1.452915e-02 -1.682515e-02 9.997529e-01
-1.061651e-02 -1.249589e-02 9.998656e-01
-6.252199e-03 -8.144179e-03 9.999473e-01
-2.011030e-03 -3.988732e-03 9.999900e-01
2.017927e-03 4.620750e-05 9.999980e-01
6.075719e-03 4.191724e-03 9.999728e-01
1.029027e-02 8.499525e-03 9.999110e-01
1.481490e-02 1.300663e-02 9.998056e-01
1.911078e-02 1.705626e-02 9.996719e-01
1.869879e-02 -1.674665e-02 9.996849e-01
1.491262e-02 -1.252721e-02 9.998103e-01
1.038015e-02 -8.285084e-03 9.999118e-01
6.050644e-03 -4.070163e-03 9.999734e-01
2.019265e-03 9.845336e-06 9.999980e-01
-2.072281e-03 4.150494e-03 9.999892e-01
-6.304095e-03 8.476889e-03 9.999442e-01
-1.066044e-02 1.288415e-02 9.998602e-01
-1.516762e-02 1.724870e-02 9.997362e-01
-1.450549e-02 1.647899e-02 9.997590e-01
-1.051459e-02 1.247896e-02 9.998668e-01
-6.254713e-03 8.138511e-03 9.999473e-01
-2.061210e-03 3.988312e-03 9.999899e-01
2.002327e-03 -1.083817e-05 9.999980e-01
6.197571e-03 -4.052145e-03 9.999726e-01
1.053470e-02 -8.257117e-03 9.999104e-01
1.492336e-02 -1.271744e-02 9.998078e-01
1.926590e-02 -1.662521e-02 9.996762e-01
1.897944e-02 1.752507e-02 9.996663e-01
1.448594e-02 1.286252e-02 9.998124e-01
1.020872e-02 8.365524e-03 9.999129e-01
6.020605e-03 4.127623e-03 9.999734e-01
1.920211e-03 9.590719e-05 9.999982e-01
-2.109874e-03 -3.964468e-03 9.999899e-01
-6.161137e-03 -8.352548e-03 9.999461e-01
-1.055049e-02 -1.281720e-02 9.998622e-01
-1.509600e-02 -1.739299e-02 9.997348e-01
0.000000e+00 0.000000e+00 0.000000e+00
0.000000e+00 0.000000e+00 0.000000e+00
0.000000e+00 0.000000e+00 0.000000e+00
0.000000e+00 0.000000e+00 0.000000e+00
0.000000e+00 0.000000e+00 0.000000e+00
0.000000e+00 0.000000e+00 0.000000e+00
0.000000e+00 0.000000e+00 0.000000e+00
0.000000e+00 0.000000e+00 0.000000e+00
0.000000e+00 0.000000e+00 0.000000e+00
0.000000e+00 0.000000e+00 0.000000e+00
0.000000e+00 0.000000e+00 0.000000e+00
0.000000e+00 0.000000e+00 0.000000e+00
0.000000e+00 0.000000e+00 0.000000e+00
0.000000e+00 0.000000e+00 0.000000e+00
0.000000e+00 0.000000e+00 0.000000e+00
0.000000e+00 0.000000e+00 0.000000e+00
0.000000e+00 0.000000e+00 0.000000e+00
0.000000e+00 0.000000e+00 0.000000e+00
0.000000e+00 0.000000e+00 0.000000e+00
0.000000e+00 0.000000e+00 0.000000e+00
0.000000e+00 0.000000e+00 0.000000e+00
0.000000e+00 0.000000e+00 0.000000e+00
0.000000e+00 0.000000e+00 0.000000e+00
0.000000e+00 0.000000e+00 0.000000e+00
0.000000e+00 0.000000e+00 0.000000e+00
0.000000e+00 0.000000e+00 0.000000e+00
0.000000e+00 0.000000e+00 0.000000e+00
-1.717956e-02 -1.517243e-02 9.997373e-01
-1.838864e-02 -1.097842e-02 9.997706e-01
-1.940278e-02 -6.572950e-03 9.997901e-01
-2.029026e-02 -2.334514e-03 9.997914e-01
-2.019387e-02 2.133919e-03 9.997938e-01
-2.000279e-02 6.520150e-03 9.997787e-01
-1.915375e-02 1.066690e-02 9.997597e-01
-1.764895e-02 1.494676e-02 9.997325e-01
-1.626735e-02 1.835732e-02 9.996992e-01
-1.220442e-02 2.003886e-02 9.997247e-01
-7.790778e-03 2.173079e-02 9.997335e-01
-3.195514e-03 2.283229e-02 9.997342e-01
1.265442e-03 2.323515e-02 9.997292e-01
6.549975e-03 2.293568e-02 9.997155e-01
1.087169e-02 2.124580e-02 9.997151e-01
1.444961e-02 2.079286e-02 9.996794e-01
1.901398e-02 1.928657e-02 9.996332e-01
2.083375e-02 -1.668789e-02 9.996437e-01
2.324928e-02 -6.648263e-03 9.997076e-01
2.430559e-02 2.145356e-03 9.997023e-01
2.289051e-02 1.111906e-02 9.996762e-01
-1.458141e-02 -1.868724e-02 9.997190e-01
-4.837878e-03 -2.145765e-02 9.997581e-01
4.433593e-03 -2.214196e-02 9.997450e-01
1.284043e-02 -2.151227e-02 9.996861e-01
1.671208e-02 -1.936972e-02 9.996727e-01
2.229917e-02 -1.151770e-02 9.996850e-01
2.403448e-02 -2.285098e-03 9.997085e-01
2.385977e-02 6.582973e-03 9.996936e-01
2.137809e-02 1.558331e-02 9.996500e-01
-9.578964e-03 -2.015375e-02 9.997510e-01
-1.206299e-04 -2.200863e-02 9.997578e-01
8.773038e-03 -2.180295e-02 9.997238e-01
-1.493803e-02 -9.363145e-03 9.998446e-01
-1.568645e-02 -4.711191e-03 9.998659e-01
-1.587522e-02 -1.139811e-04 9.998740e-01
-1.573139e-02 4.237182e-03 9.998673e-01
-1.553692e-02 8.602973e-03 9.998423e-01
-1.448414e-02 1.273481e-02 9.998140e-01
-1.352837e-02 1.649866e-02 9.997724e-01
1.260089e-02 -1.776614e-02 9.997628e-01
-8.867187e-03 1.833621e-02 9.997926e-01
-3.990012e-03 1.942304e-02 9.998034e-01
4.062987e-04 1.984852e-02 9.998029e-01
4.356821e-03 2.030583e-02 9.997844e-01
1.391212e-02 1.755730e-02 9.997491e-01
1.772410e-02 1.756370e-02 9.996886e-01
1.823483e-02 1.376261e-02 9.997390e-01
1.977491e-02 4.873583e-03 9.997926e-01
-7.585434e-03 -1.659922e-02 9.998335e-01
1.921035e-02 -4.538342e-03 9.998052e-01
1.801536e-02 -9.435682e-03 9.997932e-01
-1.341008e-02 -1.502348e-02 9.997972e-01
1.721393e-02 -1.472340e-02 9.997434e-01
1.971675e-02 1.576136e-04 9.998056e-01
2.606416e-03 -1.794367e-02 9.998356e-01
1.910330e-02 9.560082e-03 9.997718e-01
-2.532457e-03 -1.723476e-02 9.998482e-01
7.657341e-03 -1.780054e-02 9.998122e-01
-1.053708e-02 -1.224801e-02 9.998695e-01
-1.070293e-02 -2.592036e-03 9.999394e-01
-1.112404e-02 1.906599e-03 9.999363e-01
-1.155810e-02 6.350702e-03 9.999130e-01
-1.080262e-02 1.032649e-02 9.998883e-01
-9.756076e-03 1.436015e-02 9.998493e-01
-5.192194e-03 1.564057e-02 9.998642e-01
-5.031119e-04 1.647204e-02 9.998642e-01
4.287818e-03 1.673235e-02 9.998508e-01
8.873519e-03 1.780023e-02 9.998022e-01
1.389160e-02 1.307011e-02 9.998181e-01
1.350130e-02 -6.925680e-03 9.998848e-01
-1.037919e-02 -7.490892e-03 9.999181e-01
1.189688e-02 -1.253550e-02 9.998506e-01
-5.349176e-03 -1.126583e-02 9.999222e-01
5.692881e-03 -1.344757e-02 9.998934e-01
1.447436e-02 -1.797761e-03 9.998936e-01
1.451226e-02 8.005985e-03 9.998626e-01
-6.292290e-03 -3.745355e-04 9.999802e-01
-6.705854e-03 4.137629e-03 9.999689e-01
-7.637990e-03 8.074877e-03 9.999382e-01
-6.244475e-03 1.163471e-02 9.999128e-01
-1.732071e-03 1.224570e-02 9.999235e-01
3.082891e-03 1.250728e-02 9.999170e-01
8.563314e-03 1.200004e-02 9.998913e-01
8.092889e-03 -8.592741e-03 9.999303e-01
1.988088e-04 -1.300568e-02 9.999154e-01
1.467728e-02 2.929277e-03 9.998880e-01
3.381907e-03 -9.574915e-03 9.999484e-01
1.010178e-02 6.143007e-03 9.999301e-01
-1.057516e-03 -7.843636e-03 9.999687e-01
9.108115e-03 -3.611456e-03 9.999520e-01
9.927547e-03 9.251112e-04 9.999503e-01
-6.027911e-03 -5.483997e-03 9.999668e-01
-1.875758e-03 2.097527e-03 9.999961e-01
-2.935815e-03 7.310562e-03 9.999689e-01
3.722102e-03 -5.139028e-03 9.999799e-01
1.184407e-03 9.102344e-03 9.999579e-01
5.362759e-03 8.213907e-03 9.999519e-01
6.365458e-03 3.925420e-03 9.999720e-01
-1.198456e-03 -2.748433e-03 9.999955e-01
1.895068e-03 4.854071e-03 9.999864e-01
3.921418e-03 -1.218340e-04 9.999923e-01
2.038086e-02 1.665462e-02 9.996536e-01
2.315185e-02 6.989323e-03 9.997075e-01
2.357229e-02 -2.239092e-03 9.997196e-01
2.209480e-02 -1.072449e-02 9.996983e-01
1.835072e-02 -1.849274e-02 9.996606e-01
8.946014e-03 -2.079515e-02 9.997438e-01
1.317723e-04 -2.101026e-02 9.997792e-01
-8.615081e-03 -1.954702e-02 9.997718e-01
-1.638149e-02 1.616616e-02 9.997351e-01
-1.772022e-02 1.097147e-02 9.997828e-01
-1.883140e-02 6.416019e-03 9.998021e-01
-1.911165e-02 1.979397e-03 9.998154e-01
-1.922534e-02 -2.346960e-03 9.998124e-01
-1.894126e-02 -6.648300e-03 9.997985e-01
-1.802640e-02 -1.118214e-02 9.997750e-01
-1.683547e-02 -1.627067e-02 9.997259e-01
1.681121e-02 1.899527e-02 9.996783e-01
1.328530e-02 1.979635e-02 9.997157e-01
8.820167e-03 2.080646e-02 9.997446e-01
4.393283e-03 2.167510e-02 9.997554e-01
-9.227177e-06 2.201681e-02 9.997576e-01
-4.495111e-03 2.152920e-02 9.997581e-01
-8.481035e-03 2.100876e-02 9.997433e-01
-1.228638e-02 1.867252e-02 9.997501e-01
2.194762e-02 1.185714e-02 9.996888e-01
2.349696e-02 2.370885e-03 9.997211e-01
2.303736e-02 -6.504149e-03 9.997134e-01
2.092807e-02 -1.484504e-02 9.996707e-01
1.337408e-02 -1.955983e-02 9.997193e-01
4.463417e-03 -2.125762e-02 9.997641e-01
-4.107004e-03 -2.033631e-02 9.997848e-01
-1.299369e-02 -1.885195e-02 9.997379e-01
1.913906e-02 1.015989e-02 9.997652e-01
1.705555e-02 -1.440520e-02 9.997508e-01
1.888656e-02 1.844851e-04 9.998216e-01
6.994404e-03 -1.759038e-02 9.998208e-01
-1.971286e-03 -1.636173e-02 9.998642e-01
1.152247e-02 -1.581574e-02 9.998085e-01
1.918254e-02 -9.383195e-03 9.997720e-01
1.887455e-02 5.519472e-03 9.998066e-01
1.666106e-02 1.481531e-02 9.997514e-01
2.777203e-03 -1.700074e-02 9.998516e-01
-1.321918e-02 1.409133e-02 9.998133e-01
-1.286551e-02 -1.472677e-02 9.998088e-01
-1.452533e-02 8.891865e-03 9.998550e-01
-1.555854e-02 4.130093e-03 9.998704e-01
-1.581646e-02 -5.384513e-04 9.998748e-01
-1.548180e-02 -5.184437e-03 9.998667e-01
-1.525807e-02 -9.501482e-03 9.998385e-01
1.167183e-02 1.588573e-02 9.998057e-01
6.703597e-03 1.636846e-02 9.998435e-01
1.717785e-03 1.724202e-02 9.998499e-01
-2.744749e-03 1.803061e-02 9.998336e-01
-7.883940e-03 1.675712e-02 9.998285e-01
1.910203e-02 -4.959962e-03 9.998052e-01
-7.041208e-03 -1.538245e-02 9.998569e-01
-9.953425e-03 -9.142342e-03 9.999087e-01
1.398174e-02 -9.492792e-03 9.998572e-01
1.455659e-02 1.018783e-02 9.998422e-01
-4.010286e-03 -1.059023e-02 9.999359e-01
-1.050287e-02 6.243102e-03 9.999254e-01
-1.151981e-02 1.495784e-03 9.999325e-01
-1.103639e-02 -3.451369e-03 9.999331e-01
9.336070e-03 1.033823e-02 9.999030e-01
3.796375e-03 1.132258e-02 9.999287e-01
-2.615708e-03 1.232856e-02 9.999206e-01
-8.751252e-03 1.111617e-02 9.998999e-01
1.294954e-02 3.945182e-03 9.999084e-01
1.449156e-03 -1.122204e-02 9.999360e-01
7.359938e-03 -1.180197e-02 9.999033e-01
1.402927e-02 -2.793279e-03 9.998977e-01
-5.742045e-03 -5.116390e-03 9.999704e-01
9.916988e-03 -6.244252e-03 9.999313e-01
-7.200350e-03 3.098326e-03 9.999693e-01
-4.854120e-03 6.941404e-03 9.999641e-01
-7.692524e-03 -8.054730e-04 9.999701e-01
6.673338e-03 5.184299e-03 9.999643e-01
7.058031e-04 6.224427e-03 9.999804e-01
4.947019e-03 -5.860498e-03 9.999706e-01
-4.630410e-04 -5.246541e-03 9.999861e-01
8.564243e-03 -8.084825e-04 9.999630e-01
2.710326e-03 8.652200e-05 9.999963e-01
-2.794421e-03 7.830462e-04 9.999958e-01
1.527704e-02 -1.895651e-02 9.997036e-01
1.189237e-02 -1.982015e-02 9.997329e-01
8.030753e-03 -2.058138e-02 9.997559e-01
3.998077e-03 -2.091140e-02 9.997733e-01
1.685317e-04 -2.054678e-02 9.997889e-01
-3.571010e-03 -2.024962e-02 9.997886e-01
-7.347323e-03 -1.973166e-02 9.997783e-01
-1.105226e-02 -1.874781e-02 9.997631e-01
-1.395627e-02 -1.777303e-02 9.997447e-01
-1.057222e-02 -1.329221e-02 9.998558e-01
-6.602978e-03 -8.829513e-03 9.999392e-01
-2.515060e-03 -4.625422e-03 9.999861e-01
1.355801e-03 -5.597786e-04 9.999989e-01
6.067538e-03 4.329339e-03 9.999722e-01
9.604169e-03 8.474275e-03 9.999180e-01
1.320685e-02 1.226781e-02 9.998375e-01
1.735481e-02 1.663646e-02 9.997110e-01
-1.241110e-02 1.848077e-02 9.997522e-01
-4.219037e-03 2.117816e-02 9.997668e-01
4.083806e-03 2.211610e-02 9.997471e-01
1.211905e-02 2.059499e-02 9.997144e-01
1.644172e-02 -1.635787e-02 9.997310e-01
7.831515e-03 -6.276050e-03 9.999496e-01
-1.288005e-04 2.203843e-03 9.999976e-01
-7.746295e-03 1.040356e-02 9.999159e-01
-1.063298e-02 1.434320e-02 9.998406e-01
-8.323296e-03 1.989722e-02 9.997674e-01
-7.441376e-05 2.184433e-02 9.997614e-01
8.128277e-03 2.171832e-02 9.997311e-01
1.564485e-02 1.909273e-02 9.996953e-01
1.208500e-02 -1.109516e-02 9.998654e-01
3.786433e-03 -2.008841e-03 9.999908e-01
-4.034292e-03 6.623141e-03 9.999699e-01
8.731745e-03 -1.607710e-02 9.998326e-01
5.468305e-03 -1.645423e-02 9.998497e-01
2.084136e-03 -1.659487e-02 9.998601e-01
-9.802803e-04 -1.671841e-02 9.998598e-01
-4.135255e-03 -1.632183e-02 9.998583e-01
-7.080391e-03 -1.533629e-02 9.998573e-01
-9.358400e-03 -1.416483e-02 9.998559e-01
-6.004649e-03 9.888267e-03 9.999331e-01
-6.185990e-03 -9.855952e-03 9.999323e-01
-2.646566e-03 -5.459322e-03 9.999816e-01
7.818958e-04 -1.375876e-03 9.999987e-01
3.892025e-03 2.299591e-03 9.999898e-01
1.082648e-02 1.138353e-02 9.998766e-01
1.416826e-02 1.515009e-02 9.997848e-01
1.185908e-02 1.572638e-02 9.998060e-01
5.730575e-03 1.719270e-02 9.998358e-01
8.492229e-03 -9.123161e-03 9.999223e-01
-1.311842e-03 1.686301e-02 9.998569e-01
-4.759548e-03 1.557204e-02 9.998674e-01
1.211644e-02 -1.466528e-02 9.998190e-01
-7.721159e-03 1.475298e-02 9.998614e-01
2.261095e-03 1.733214e-02 9.998472e-01
1.584456e-03 4.905616e-04 9.999986e-01
8.947030e-03 1.658829e-02 9.998224e-01
5.054751e-03 -4.263463e-03 9.999781e-01
-2.000505e-03 5.262399e-03 9.999841e-01
8.182326e-03 -1.139688e-02 9.999016e-01
3.547046e-03 -1.174565e-02 9.999247e-01
1.041721e-03 -1.200635e-02 9.999274e-01
-1.309213e-03 -1.231250e-02 9.999233e-01
-3.642425e-03 -1.174003e-02 9.999244e-01
-5.176382e-03 -1.088872e-02 9.999273e-01
-2.521847e-03 -6.321562e-03 9.999768e-01
4.226875e-04 -2.156621e-03 9.999976e-01
3.505339e-03 2.165041e-03 9.999915e-01
7.004337e-03 6.457467e-03 9.999546e-01
8.596309e-03 1.121528e-02 9.999002e-01
-1.317774e-03 1.105458e-02 9.999380e-01
5.901102e-03 -1.145655e-02 9.999170e-01
-3.361260e-03 9.270088e-03 9.999514e-01
5.429135e-03 -6.652581e-03 9.999631e-01
2.389199e-06 3.374846e-03 9.999943e-01
1.071066e-03 1.170081e-02 9.999310e-01
6.343666e-03 1.187965e-02 9.999093e-01
2.163827e-03 -7.419190e-03 9.999701e-01
6.079548e-04 -7.991474e-03 9.999679e-01
-1.132856e-03 -8.766521e-03 9.999610e-01
-1.883813e-03 -7.401049e-03 9.999709e-01
7.475186e-05 -3.402505e-03 9.999942e-01
2.491389e-03 1.012151e-03 9.999964e-01
5.361870e-03 6.176434e-03 9.999666e-01
-1.225956e-04 5.603865e-03 9.999843e-01
2.923065e-03 -1.553818e-03 9.999945e-01
3.712178e-03 1.215568e-02 9.999192e-01
1.396533e-03 1.215644e-03 9.999983e-01
4.227490e-03 7.581793e-03 9.999623e-01
2.859854e-03 -2.778212e-03 9.999921e-01
1.002487e-03 6.519260e-03 9.999782e-01
2.365538e-03 7.418417e-03 9.999697e-01
3.748498e-03 -7.084281e-03 9.999679e-01
1.590563e-03 -3.478967e-03 9.999927e-01
4.609430e-04 -4.463603e-03 9.999899e-01
1.657857e-03 1.598557e-03 9.999974e-01
1.624506e-03 -7.221083e-04 9.999984e-01
3.112210e-03 3.177049e-03 9.999901e-01
2.787050e-03 4.133766e-03 9.999875e-01
2.329879e-03 -2.911394e-03 9.999930e-01
1.919786e-03 -3.381640e-05 9.999982e-01
2.014897e-03 1.925980e-03 9.999961e-01
1.625962e-02 1.838800e-02 9.996987e-01
8.431603e-03 2.065545e-02 9.997511e-01
2.376941e-04 2.169315e-02 9.997646e-01
-7.973766e-03 2.016742e-02 9.997648e-01
-1.215665e-02 1.606220e-02 9.997971e-01
-4.036505e-03 6.438822e-03 9.999712e-01
3.761138e-03 -1.915902e-03 9.999911e-01
1.174479e-02 -1.071302e-02 9.998736e-01
-1.225554e-02 -1.852276e-02 9.997533e-01
-7.993950e-03 -2.010101e-02 9.997660e-01
-3.729425e-03 -2.109672e-02 9.997705e-01
1.885832e-04 -2.191067e-02 9.997599e-01
4.447018e-03 -2.153055e-02 9.997583e-01
8.420533e-03 -2.141132e-02 9.997353e-01
1.257462e-02 -2.029599e-02 9.997149e-01
1.655207e-02 -1.888695e-02 9.996846e-01
1.516423e-02 1.483440e-02 9.997750e-01
1.157568e-02 1.054739e-02 9.998774e-01
7.661169e-03 6.149470e-03 9.999517e-01
3.754223e-03 2.048394e-03 9.999909e-01
-2.611949e-05 -2.009343e-03 9.999980e-01
-3.884243e-03 -6.182252e-03 9.999734e-01
-7.406845e-03 -1.012770e-02 9.999213e-01
-1.020859e-02 -1.411777e-02 9.998482e-01
1.248162e-02 1.951743e-02 9.997316e-01
4.432560e-03 2.138276e-02 9.997615e-01
-3.999437e-03 2.146067e-02 9.997617e-01
-1.128373e-02 1.877435e-02 9.997601e-01
-7.993625e-03 1.094282e-02 9.999081e-01
-8.241124e-05 2.275868e-03 9.999974e-01
7.670677e-03 -6.146932e-03 9.999517e-01
1.550244e-02 -1.514915e-02 9.997650e-01
9.465204e-03 1.628882e-02 9.998225e-01
-7.853501e-03 1.453177e-02 9.998636e-01
2.373194e-03 1.636182e-02 9.998633e-01
-1.693540e-03 4.567153e-03 9.999881e-01
4.771197e-03 -3.741434e-03 9.999816e-01
-4.394499e-03 8.970697e-03 9.999501e-01
-4.970681e-03 1.670088e-02 9.998482e-01
6.124757e-03 1.611659e-02 9.998513e-01
1.172553e-02 1.448980e-02 9.998263e-01
1.431164e-03 6.020147e-04 9.999988e-01
-7.574726e-03 -1.495809e-02 9.998595e-01
1.200357e-02 -1.431535e-02 9.998255e-01
-4.282158e-03 -1.630506e-02 9.998579e-01
-8.927803e-04 -1.720693e-02 9.998515e-01
2.582389e-03 -1.745543e-02 9.998443e-01
6.106955e-03 -1.706324e-02 9.998358e-01
9.441567e-03 -1.682076e-02 9.998139e-01
8.291183e-03 8.973056e-03 9.999254e-01
4.942934e-03 4.150297e-03 9.999792e-01
1.564052e-03 -4.091814e-04 9.999987e-01
-1.642392e-03 -4.500030e-03 9.999885e-01
-5.092592e-03 -9.344536e-03 9.999434e-01
-1.426752e-03 1.654259e-02 9.998621e-01
8.181266e-03 -8.748041e-03 9.999283e-01
6.858878e-03 -1.170716e-02 9.999080e-01
-2.919530e-03 1.121548e-02 9.999328e-01
7.406867e-03 1.194465e-02 9.999012e-01
4.723206e-03 -5.646321e-03 9.999729e-01
-1.248885e-03 -1.199310e-02 9.999273e-01
1.201996e-03 -1.284853e-02 9.999167e-01
4.014954e-03 -1.267449e-02 9.999116e-01
5.103368e-03 6.668523e-03 9.999647e-01
2.604033e-03 1.336730e-03 9.999957e-01
-4.390565e-04 -4.313807e-03 9.999906e-01
-3.116003e-03 -1.045271e-02 9.999405e-01