<?xml version="1.0"?>
<VTKFile type="UnstructuredGrid" version="0.1">
<UnstructuredGrid>
<FieldData>
<DataArray Name="TIME" type="Float64" format="ascii" NumberOfTuples="1">
0.000000e+00
</DataArray>
</FieldData>
<FieldData>
<DataArray Name="CYCLE" type="Int32" format="ascii" NumberOfTuples="1">
0
</DataArray>
</FieldData>
<Piece NumberOfPoints="11702" NumberOfCells="63859">
<Points>
<DataArray NumberOfComponents="3" type="Float64" format="ascii">
-4.000000e+00 -4.000000e+00 4.000000e+00
-4.000000e+00 -4.000000e+00 -4.000000e+00
-4.000000e+00 4.000000e+00 4.000000e+00
-4.000000e+00 4.000000e+00 -4.000000e+00
4.000000e+00 -4.000000e+00 4.000000e+00
4.000000e+00 -4.000000e+00 -4.000000e+00
4.000000e+00 4.000000e+00 4.000000e+00
4.000000e+00 4.000000e+00 -4.000000e+00
-4.000000e+00 -4.000000e+00 -3.200000e+00
-4.000000e+00 -4.000000e+00 -2.400000e+00
-4.000000e+00 -4.000000e+00 -1.600000e+00
-4.000000e+00 -4.000000e+00 -8.000000e-01
-4.000000e+00 -4.000000e+00 0.000000e+00
-4.000000e+00 -4.000000e+00 8.000000e-01
-4.000000e+00 -4.000000e+00 1.600000e+00
-4.000000e+00 -4.000000e+00 2.400000e+00
-4.000000e+00 -4.000000e+00 3.200000e+00
-4.000000e+00 -3.200000e+00 4.000000e+00
-4.000000e+00 -2.400000e+00 4.000000e+00
-4.000000e+00 -1.600000e+00 4.000000e+00
-4.000000e+00 -8.000000e-01 4.000000e+00
-4.000000e+00 0.000000e+00 4.000000e+00
-4.000000e+00 8.000000e-01 4.000000e+00
-4.000000e+00 1.600000e+00 4.000000e+00
-4.000000e+00 2.400000e+00 4.000000e+00
-4.000000e+00 3.200000e+00 4.000000e+00
-4.000000e+00 4.000000e+00 -3.200000e+00
-4.000000e+00 4.000000e+00 -2.400000e+00
-4.000000e+00 4.000000e+00 -1.600000e+00
-4.000000e+00 4.000000e+00 -8.000000e-01
-4.000000e+00 4.000000e+00 0.000000e+00
-4.000000e+00 4.000000e+00 8.000000e-01
-4.000000e+00 4.000000e+00 1.600000e+00
-4.000000e+00 4.000000e+00 2.400000e+00
-4.000000e+00 4.000000e+00 3.200000e+00
-4.000000e+00 -3.200000e+00 -4.000000e+00
-4.000000e+00 -2.400000e+00 -4.000000e+00
-4.000000e+00 -1.600000e+00 -4.000000e+00
-4.000000e+00 -8.000000e-01 -4.000000e+00
-4.000000e+00 0.000000e+00 -4.000000e+00
-4.000000e+00 8.000000e-01 -4.000000e+00
-4.000000e+00 1.600000e+00 -4.000000e+00
-4.000000e+00 2.400000e+00 -4.000000e+00
-4.000000e+00 3.200000e+00 -4.000000e+00
4.000000e+00 -4.000000e+00 -3.200000e+00
4.000000e+00 -4.000000e+00 -2.400000e+00
4.000000e+00 -4.000000e+00 -1.600000e+00
4.000000e+00 -4.000000e+00 -8.000000e-01
4.000000e+00 -4.000000e+00 0.000000e+00
4.000000e+00 -4.000000e+00 8.000000e-01
4.000000e+00 -4.000000e+00 1.600000e+00
4.000000e+00 -4.000000e+00 2.400000e+00
4.000000e+00 -4.000000e+00 3.200000e+00
4.000000e+00 -3.200000e+00 4.000000e+00
4.000000e+00 -2.400000e+00 4.000000e+00
4.000000e+00 -1.600000e+00 4.000000e+00
4.000000e+00 -8.000000e-01 4.000000e+00
4.000000e+00 0.000000e+00 4.000000e+00
4.000000e+00 8.000000e-01 4.000000e+00
4.000000e+00 1.600000e+00 4.000000e+00
4.000000e+00 2.400000e+00 4.000000e+00
4.000000e+00 3.200000e+00 4.000000e+00
4.000000e+00 4.000000e+00 -3.200000e+00
4.000000e+00 4.000000e+00 -2.400000e+00
4.000000e+00 4.000000e+00 -1.600000e+00
4.000000e+00 4.000000e+00 -8.000000e-01
4.000000e+00 4.000000e+00 0.000000e+00
4.000000e+00 4.000000e+00 8.000000e-01
4.000000e+00 4.000000e+00 1.600000e+00
4.000000e+00 4.000000e+00 2.400000e+00
4.000000e+00 4.000000e+00 3.200000e+00
4.000000e+00 -3.200000e+00 -4.000000e+00
4.000000e+00 -2.400000e+00 -4.000000e+00
4.000000e+00 -1.600000e+00 -4.000000e+00
4.000000e+00 -8.000000e-01 -4.000000e+00
4.000000e+00 0.000000e+00 -4.000000e+00
4.000000e+00 8.000000e-01 -4.000000e+00
4.000000e+00 1.600000e+00 -4.000000e+00
4.000000e+00 2.400000e+00 -4.000000e+00
4.000000e+00 3.200000e+00 -4.000000e+00
-3.200000e+00 -4.000000e+00 -4.000000e+00
-2.400000e+00 -4.000000e+00 -4.000000e+00
-1.600000e+00 -4.000000e+00 -4.000000e+00
-8.000000e-01 -4.000000e+00 -4.000000e+00
0.000000e+00 -4.000000e+00 -4.000000e+00
8.000000e-01 -4.000000e+00 -4.000000e+00
1.600000e+00 -4.000000e+00 -4.000000e+00
2.400000e+00 -4.000000e+00 -4.000000e+00
3.200000e+00 -4.000000e+00 -4.000000e+00
-3.200000e+00 -4.000000e+00 4.000000e+00
-2.400000e+00 -4.000000e+00 4.000000e+00
-1.600000e+00 -4.000000e+00 4.000000e+00
-8.000000e-01 -4.000000e+00 4.000000e+00
0.000000e+00 -4.000000e+00 4.000000e+00
8.000000e-01 -4.000000e+00 4.000000e+00
1.600000e+00 -4.000000e+00 4.000000e+00
2.400000e+00 -4.000000e+00 4.000000e+00
3.200000e+00 -4.000000e+00 4.000000e+00
-3.200000e+00 4.000000e+00 -4.000000e+00
-2.400000e+00 4.000000e+00 -4.000000e+00
-1.600000e+00 4.000000e+00 -4.000000e+00
-8.000000e-01 4.000000e+00 -4.000000e+00
0.000000e+00 4.000000e+00 -4.000000e+00
8.000000e-01 4.000000e+00 -4.000000e+00
1.600000e+00 4.000000e+00 -4.000000e+00
2.400000e+00 4.000000e+00 -4.000000e+00
3.200000e+00 4.000000e+00 -4.000000e+00
-3.200000e+00 4.000000e+00 4.000000e+00
-2.400000e+00 4.000000e+00 4.000000e+00
-1.600000e+00 4.000000e+00 4.000000e+00
-8.000000e-01 4.000000e+00 4.000000e+00
0.000000e+00 4.000000e+00 4.000000e+00
8.000000e-01 4.000000e+00 4.000000e+00
1.600000e+00 4.000000e+00 4.000000e+00
2.400000e+00 4.000000e+00 4.000000e+00
3.200000e+00 4.000000e+00 4.000000e+00
-4.000000e+00 -3.200000e+00 -3.200000e+00
-4.000000e+00 -2.400000e+00 -3.200000e+00
-4.000000e+00 -1.600000e+00 -3.200000e+00
-4.000000e+00 -8.000000e-01 -3.200000e+00
-4.000000e+00 0.000000e+00 -3.200000e+00
-4.000000e+00 8.000000e-01 -3.200000e+00
-4.000000e+00 1.600000e+00 -3.200000e+00
-4.000000e+00 2.400000e+00 -3.200000e+00
-4.000000e+00 3.200000e+00 -3.200000e+00
-4.000000e+00 -3.200000e+00 -2.400000e+00
-4.000000e+00 -2.400000e+00 -2.400000e+00
-4.000000e+00 -1.600000e+00 -2.400000e+00
-4.000000e+00 -8.000000e-01 -2.400000e+00
-4.000000e+00 0.000000e+00 -2.400000e+00
-4.000000e+00 8.000000e-01 -2.400000e+00
-4.000000e+00 1.600000e+00 -2.400000e+00
-4.000000e+00 2.400000e+00 -2.400000e+00
-4.000000e+00 3.200000e+00 -2.400000e+00
-4.000000e+00 -3.200000e+00 -1.600000e+00
-4.000000e+00 -2.400000e+00 -1.600000e+00
-4.000000e+00 -1.600000e+00 -1.600000e+00
-4.000000e+00 -8.000000e-01 -1.600000e+00
-4.000000e+00 0.000000e+00 -1.600000e+00
-4.000000e+00 8.000000e-01 -1.600000e+00
-4.000000e+00 1.600000e+00 -1.600000e+00
-4.000000e+00 2.400000e+00 -1.600000e+00
-4.000000e+00 3.200000e+00 -1.600000e+00
-4.000000e+00 -3.200000e+00 -8.000000e-01
-4.000000e+00 -2.400000e+00 -8.000000e-01
-4.000000e+00 -1.600000e+00 -8.000000e-01
-4.000000e+00 -8.000000e-01 -8.000000e-01
-4.000000e+00 0.000000e+00 -8.000000e-01
-4.000000e+00 8.000000e-01 -8.000000e-01
-4.000000e+00 1.600000e+00 -8.000000e-01
-4.000000e+00 2.400000e+00 -8.000000e-01
-4.000000e+00 3.200000e+00 -8.000000e-01
-4.000000e+00 -3.200000e+00 0.000000e+00
-4.000000e+00 -2.400000e+00 0.000000e+00
-4.000000e+00 -1.600000e+00 0.000000e+00
-4.000000e+00 -8.000000e-01 0.000000e+00
-4.000000e+00 0.000000e+00 0.000000e+00
-4.000000e+00 8.000000e-01 0.000000e+00
-4.000000e+00 1.600000e+00 0.000000e+00
-4.000000e+00 2.400000e+00 0.000000e+00
-4.000000e+00 3.200000e+00 0.000000e+00
-4.000000e+00 -3.200000e+00 8.000000e-01
-4.000000e+00 -2.400000e+00 8.000000e-01
-4.000000e+00 -1.600000e+00 8.000000e-01
-4.000000e+00 -8.000000e-01 8.000000e-01
-4.000000e+00 0.000000e+00 8.000000e-01
-4.000000e+00 8.000000e-01 8.000000e-01
-4.000000e+00 1.600000e+00 8.000000e-01
-4.000000e+00 2.400000e+00 8.000000e-01
-4.000000e+00 3.200000e+00 8.000000e-01
-4.000000e+00 -3.200000e+00 1.600000e+00
-4.000000e+00 -2.400000e+00 1.600000e+00
-4.000000e+00 -1.600000e+00 1.600000e+00
-4.000000e+00 -8.000000e-01 1.600000e+00
-4.000000e+00 0.000000e+00 1.600000e+00
-4.000000e+00 8.000000e-01 1.600000e+00
-4.000000e+00 1.600000e+00 1.600000e+00
-4.000000e+00 2.400000e+00 1.600000e+00
-4.000000e+00 3.200000e+00 1.600000e+00
-4.000000e+00 -3.200000e+00 2.400000e+00
-4.000000e+00 -2.400000e+00 2.400000e+00
-4.000000e+00 -1.600000e+00 2.400000e+00
-4.000000e+00 -8.000000e-01 2.400000e+00
-4.000000e+00 0.000000e+00 2.400000e+00
-4.000000e+00 8.000000e-01 2.400000e+00
-4.000000e+00 1.600000e+00 2.400000e+00
-4.000000e+00 2.400000e+00 2.400000e+00
-4.000000e+00 3.200000e+00 2.400000e+00
-4.000000e+00 -3.200000e+00 3.200000e+00
-4.000000e+00 -2.400000e+00 3.200000e+00
-4.000000e+00 -1.600000e+00 3.200000e+00
-4.000000e+00 -8.000000e-01 3.200000e+00
-4.000000e+00 0.000000e+00 3.200000e+00
-4.000000e+00 8.000000e-01 3.200000e+00
-4.000000e+00 1.600000e+00 3.200000e+00
-4.000000e+00 2.400000e+00 3.200000e+00
-4.000000e+00 3.200000e+00 3.200000e+00
4.000000e+00 -3.200000e+00 3.200000e+00
4.000000e+00 -2.400000e+00 3.200000e+00
4.000000e+00 -1.600000e+00 3.200000e+00
4.000000e+00 -8.000000e-01 3.200000e+00
4.000000e+00 0.000000e+00 3.200000e+00
4.000000e+00 8.000000e-01 3.200000e+00
4.000000e+00 1.600000e+00 3.200000e+00
4.000000e+00 2.400000e+00 3.200000e+00
4.000000e+00 3.200000e+00 3.200000e+00
4.000000e+00 -3.200000e+00 2.400000e+00
4.000000e+00 -2.400000e+00 2.400000e+00
4.000000e+00 -1.600000e+00 2.400000e+00
4.000000e+00 -8.000000e-01 2.400000e+00
4.000000e+00 0.000000e+00 2.400000e+00
4.000000e+00 8.000000e-01 2.400000e+00
4.000000e+00 1.600000e+00 2.400000e+00
4.000000e+00 2.400000e+00 2.400000e+00
4.000000e+00 3.200000e+00 2.400000e+00
4.000000e+00 -3.200000e+00 1.600000e+00
4.000000e+00 -2.400000e+00 1.600000e+00
4.000000e+00 -1.600000e+00 1.600000e+00
4.000000e+00 -8.000000e-01 1.600000e+00
4.000000e+00 0.000000e+00 1.600000e+00
4.000000e+00 8.000000e-01 1.600000e+00
4.000000e+00 1.600000e+00 1.600000e+00
4.000000e+00 2.400000e+00 1.600000e+00
4.000000e+00 3.200000e+00 1.600000e+00
4.000000e+00 -3.200000e+00 8.000000e-01
4.000000e+00 -2.400000e+00 8.000000e-01
4.000000e+00 -1.600000e+00 8.000000e-01
4.000000e+00 -8.000000e-01 8.000000e-01
4.000000e+00 0.000000e+00 8.000000e-01
4.000000e+00 8.000000e-01 8.000000e-01
4.000000e+00 1.600000e+00 8.000000e-01
4.000000e+00 2.400000e+00 8.000000e-01
4.000000e+00 3.200000e+00 8.000000e-01
4.000000e+00 -3.200000e+00 0.000000e+00
4.000000e+00 -2.400000e+00 0.000000e+00
4.000000e+00 -1.600000e+00 0.000000e+00
[...]
<PointData>
<DataArray Name="m" type="Float64" NumberOfComponents="3" format="ascii">
-3.149730e-02 -4.151817e-02 9.986411e-01
5.226020e-02 4.223711e-02 9.977399e-01
-3.102120e-02 4.140952e-02 9.986606e-01
5.224960e-02 -4.212119e-02 9.977453e-01
5.258277e-02 -4.259225e-02 9.977078e-01
-3.153929e-02 4.177755e-02 9.986290e-01
5.252434e-02 4.206454e-02 9.977333e-01
-3.122085e-02 -4.157607e-02 9.986475e-01
4.723451e-02 3.724001e-02 9.981894e-01
3.974765e-02 2.986601e-02 9.987633e-01
3.003803e-02 2.025226e-02 9.993436e-01
2.023501e-02 1.055356e-02 9.997395e-01
1.019699e-02 5.406949e-04 9.999478e-01
1.850005e-04 -9.458382e-03 9.999552e-01
-9.474021e-03 -1.922791e-02 9.997702e-01
-1.904632e-02 -2.893509e-02 9.993998e-01
-2.638900e-02 -3.646889e-02 9.989863e-01
-3.152562e-02 -3.700889e-02 9.988176e-01
-3.428023e-02 -2.978081e-02 9.989685e-01
-3.485096e-02 -2.021260e-02 9.991881e-01
-3.716308e-02 -1.042567e-02 9.992548e-01
-3.630184e-02 5.121572e-05 9.993409e-01
-3.731008e-02 1.043403e-02 9.992493e-01
-3.505645e-02 2.026093e-02 9.991800e-01
-3.433263e-02 2.981753e-02 9.989656e-01
-3.117626e-02 3.690009e-02 9.988325e-01
4.719220e-02 -3.719730e-02 9.981930e-01
3.968465e-02 -2.985263e-02 9.987662e-01
3.000891e-02 -2.022747e-02 9.993449e-01
2.025432e-02 -1.054077e-02 9.997393e-01
1.025697e-02 -5.171584e-04 9.999472e-01
2.946219e-04 9.499812e-03 9.999548e-01
-9.297089e-03 1.921781e-02 9.997721e-01
-1.876125e-02 2.888508e-02 9.994066e-01
-2.604861e-02 3.639658e-02 9.989979e-01
5.240682e-02 3.764338e-02 9.979161e-01
5.545329e-02 3.045633e-02 9.979967e-01
5.610146e-02 2.063557e-02 9.982118e-01
5.845049e-02 1.050922e-02 9.982350e-01
5.753691e-02 -1.250926e-05 9.983434e-01
5.836747e-02 -1.054875e-02 9.982395e-01
5.590925e-02 -2.066463e-02 9.982220e-01
5.538977e-02 -3.046528e-02 9.979999e-01
5.239365e-02 -3.759070e-02 9.979188e-01
-2.646367e-02 3.663902e-02 9.989781e-01
-1.904878e-02 2.907919e-02 9.993956e-01
-9.446855e-03 1.933835e-02 9.997684e-01
2.299362e-04 9.509438e-03 9.999548e-01
1.026225e-02 -5.530925e-04 9.999472e-01
2.032682e-02 -1.057864e-02 9.997374e-01
3.016682e-02 -2.029115e-02 9.993389e-01
3.995445e-02 -2.998535e-02 9.987515e-01
4.752083e-02 -3.747771e-02 9.981669e-01
5.277564e-02 -3.788885e-02 9.978874e-01
5.585987e-02 -3.047260e-02 9.979735e-01
5.660684e-02 -2.059558e-02 9.981841e-01
5.897172e-02 -1.060017e-02 9.982034e-01
5.803297e-02 1.810089e-05 9.983147e-01
5.892300e-02 1.061592e-02 9.982061e-01
5.650990e-02 2.064003e-02 9.981887e-01
5.587982e-02 3.036300e-02 9.979757e-01
5.271938e-02 3.749232e-02 9.979053e-01
-2.629744e-02 -3.650438e-02 9.989874e-01
-1.900518e-02 -2.900240e-02 9.993986e-01
-9.411565e-03 -1.930052e-02 9.997694e-01
2.870710e-04 -9.525887e-03 9.999546e-01
1.033817e-02 4.823844e-04 9.999464e-01
2.037437e-02 1.049613e-02 9.997373e-01
3.012527e-02 2.016997e-02 9.993426e-01
3.986823e-02 2.977230e-02 9.987613e-01
4.744620e-02 3.710564e-02 9.981844e-01
-3.163181e-02 3.717092e-02 9.988081e-01
-3.458748e-02 3.000066e-02 9.989513e-01
-3.506560e-02 2.030506e-02 9.991787e-01
-3.743005e-02 1.030507e-02 9.992461e-01
-3.660919e-02 -6.265301e-05 9.993297e-01
-3.749613e-02 -1.045450e-02 9.992421e-01
-3.521401e-02 -2.032280e-02 9.991732e-01
-3.450821e-02 -2.986890e-02 9.989580e-01
-3.135806e-02 -3.701041e-02 9.988227e-01
4.778272e-02 4.234696e-02 9.979597e-01
4.075209e-02 4.545200e-02 9.981350e-01
3.118313e-02 4.612896e-02 9.984487e-01
2.140286e-02 4.839885e-02 9.985988e-01
1.098457e-02 4.730689e-02 9.988200e-01
4.539485e-04 4.806872e-02 9.988439e-01
-9.591226e-03 4.564146e-02 9.989119e-01
-1.942271e-02 4.492141e-02 9.988017e-01
-2.682349e-02 4.191793e-02 9.987609e-01
-2.678076e-02 -4.163636e-02 9.987739e-01
-1.946974e-02 -4.477813e-02 9.988072e-01
-9.616497e-03 -4.555728e-02 9.989154e-01
4.842720e-04 -4.805829e-02 9.988444e-01
1.091752e-02 -4.722770e-02 9.988245e-01
2.138729e-02 -4.817520e-02 9.986099e-01
3.139836e-02 -4.591181e-02 9.984519e-01
4.109392e-02 -4.554496e-02 9.981167e-01
4.810848e-02 -4.268527e-02 9.979296e-01
4.774433e-02 -4.224566e-02 9.979658e-01
4.071208e-02 -4.530228e-02 9.981434e-01
3.106365e-02 -4.602900e-02 9.984570e-01
2.132257e-02 -4.849496e-02 9.985958e-01
1.100550e-02 -4.747147e-02 9.988120e-01
4.421495e-04 -4.820399e-02 9.988374e-01
-9.522308e-03 -4.569225e-02 9.989102e-01
-1.923708e-02 -4.494386e-02 9.988043e-01
-2.657451e-02 -4.178177e-02 9.987733e-01
-2.642230e-02 4.154338e-02 9.987873e-01
-1.912002e-02 4.459917e-02 9.988220e-01
-9.347270e-03 4.515800e-02 9.989361e-01
4.999220e-04 4.762344e-02 9.988652e-01
1.087802e-02 4.701809e-02 9.988348e-01
2.131171e-02 4.806124e-02 9.986170e-01
3.117122e-02 4.574361e-02 9.984668e-01
4.089432e-02 4.514925e-02 9.981429e-01
4.802941e-02 4.218512e-02 9.979547e-01
4.908701e-02 3.507109e-02 9.981786e-01
4.986697e-02 2.790907e-02 9.983659e-01
5.249046e-02 1.950489e-02 9.984309e-01
5.240408e-02 9.765600e-03 9.985782e-01
5.389858e-02 -2.244069e-05 9.985464e-01
5.238915e-02 -9.814348e-03 9.985785e-01
5.241057e-02 -1.950963e-02 9.984350e-01
4.980267e-02 -2.788249e-02 9.983698e-01
4.903572e-02 -3.503754e-02 9.981823e-01
4.001735e-02 2.760749e-02 9.988175e-01
4.163733e-02 2.287590e-02 9.988708e-01
4.232515e-02 1.584192e-02 9.989783e-01
4.360822e-02 8.146153e-03 9.990155e-01
4.337315e-02 -4.019339e-06 9.990590e-01
4.358837e-02 -8.165377e-03 9.990162e-01
4.228115e-02 -1.583454e-02 9.989803e-01
4.155921e-02 -2.285833e-02 9.988745e-01
3.994882e-02 -2.760580e-02 9.988203e-01
3.054483e-02 1.922068e-02 9.993486e-01
3.103015e-02 1.576291e-02 9.993941e-01
3.198772e-02 1.121564e-02 9.994254e-01
3.224667e-02 5.723102e-03 9.994636e-01
3.268997e-02 9.302682e-06 9.994655e-01
3.223952e-02 -5.706011e-03 9.994639e-01
3.195079e-02 -1.119688e-02 9.994267e-01
3.098557e-02 -1.575602e-02 9.993956e-01
3.051004e-02 -1.921165e-02 9.993498e-01
2.028706e-02 9.861184e-03 9.997455e-01
2.066605e-02 8.275681e-03 9.997522e-01
2.089676e-02 5.811524e-03 9.997647e-01
2.126267e-02 3.020453e-03 9.997694e-01
2.125349e-02 2.149114e-05 9.997741e-01
2.125454e-02 -2.996304e-03 9.997696e-01
2.091377e-02 -5.796872e-03 9.997645e-01
2.067095e-02 -8.253740e-03 9.997523e-01
2.029728e-02 -9.845339e-03 9.997455e-01
1.017085e-02 5.177257e-04 9.999481e-01
1.015735e-02 4.035241e-04 9.999483e-01
1.013943e-02 2.713041e-04 9.999486e-01
1.016430e-02 1.441662e-04 9.999483e-01
1.015907e-02 2.470203e-05 9.999484e-01
1.017489e-02 -1.094708e-04 9.999482e-01
1.017207e-02 -2.561670e-04 9.999482e-01
1.021164e-02 -3.778434e-04 9.999478e-01
1.023490e-02 -4.875539e-04 9.999475e-01
1.092204e-04 -8.861082e-03 9.999607e-01
-3.405434e-04 -7.467770e-03 9.999720e-01
-5.470719e-04 -5.286339e-03 9.999859e-01
-8.983616e-04 -2.752038e-03 9.999958e-01
-8.327577e-04 2.097482e-05 9.999996e-01
-8.656320e-04 2.790947e-03 9.999957e-01
-4.873869e-04 5.309577e-03 9.999858e-01
-2.245899e-04 7.505307e-03 9.999718e-01
2.420162e-04 8.914456e-03 9.999602e-01
-1.003400e-02 -1.826079e-02 9.997829e-01
-1.051503e-02 -1.500946e-02 9.998320e-01
-1.148869e-02 -1.070084e-02 9.998767e-01
-1.169991e-02 -5.483063e-03 9.999165e-01
-1.210173e-02 1.581097e-05 9.999267e-01
-1.163903e-02 5.516764e-03 9.999170e-01
-1.139635e-02 1.074020e-02 9.998774e-01
-1.038719e-02 1.507256e-02 9.998325e-01
-9.877946e-03 1.829168e-02 9.997839e-01
-1.931335e-02 -2.677223e-02 9.994550e-01
-2.091197e-02 -2.215588e-02 9.995358e-01
-2.156659e-02 -1.536310e-02 9.996493e-01
-2.283791e-02 -7.954347e-03 9.997075e-01
-2.253524e-02 2.522214e-05 9.997460e-01
-2.280780e-02 7.972366e-03 9.997081e-01
-2.148976e-02 1.539768e-02 9.996505e-01
-2.075930e-02 2.222411e-02 9.995375e-01
-1.907334e-02 2.677326e-02 9.994596e-01
-2.823592e-02 -3.437465e-02 9.990101e-01
-2.887139e-02 -2.723639e-02 9.992120e-01
-3.145903e-02 -1.904728e-02 9.993235e-01
-3.135941e-02 -9.614388e-03 9.994619e-01
-3.284011e-02 3.171250e-05 9.994606e-01
-3.136872e-02 9.622944e-03 9.994615e-01
-3.149671e-02 1.909803e-02 9.993214e-01
-2.878234e-02 2.730315e-02 9.992127e-01
-2.795017e-02 3.431759e-02 9.990200e-01
4.940647e-02 -3.528892e-02 9.981551e-01
5.018937e-02 -2.795691e-02 9.983484e-01
5.290664e-02 -1.946398e-02 9.984097e-01
5.282299e-02 -9.799461e-03 9.985558e-01
5.432520e-02 2.108594e-05 9.985233e-01
5.280910e-02 9.856109e-03 9.985560e-01
5.290408e-02 1.948637e-02 9.984095e-01
5.016287e-02 2.780800e-02 9.983538e-01
4.933794e-02 3.495787e-02 9.981702e-01
4.022165e-02 -2.771999e-02 9.988062e-01
4.183974e-02 -2.291216e-02 9.988616e-01
4.257073e-02 -1.581098e-02 9.989684e-01
4.389093e-02 -8.133166e-03 9.990032e-01
4.365483e-02 1.590070e-05 9.990467e-01
4.387386e-02 8.190395e-03 9.990035e-01
4.256171e-02 1.582093e-02 9.989685e-01
4.181642e-02 2.280839e-02 9.988649e-01
4.017545e-02 2.753937e-02 9.988130e-01
3.066918e-02 -1.926775e-02 9.993439e-01
3.113287e-02 -1.577479e-02 9.993908e-01
3.210760e-02 -1.116933e-02 9.994220e-01
3.239239e-02 -5.674849e-03 9.994591e-01
3.285628e-02 2.252871e-05 9.994601e-01
3.241220e-02 5.733948e-03 9.994581e-01
3.214185e-02 1.120506e-02 9.994205e-01
3.117393e-02 1.571405e-02 9.993904e-01
3.065263e-02 1.915549e-02 9.993466e-01
2.036777e-02 -9.866216e-03 9.997439e-01
2.073392e-02 -8.247914e-03 9.997510e-01
2.099493e-02 -5.757694e-03 9.997630e-01
2.134863e-02 -2.978180e-03 9.997677e-01
2.132493e-02 1.987148e-05 9.997726e-01
2.135884e-02 3.045663e-03 9.997672e-01
2.103684e-02 5.809178e-03 9.997618e-01
2.080810e-02 8.214750e-03 9.997497e-01
2.041451e-02 9.789808e-03 9.997437e-01
1.021117e-02 -4.954631e-04 9.999477e-01
1.019296e-02 -3.528587e-04 9.999480e-01
1.017164e-02 -2.092652e-04 9.999483e-01
1.018850e-02 -9.050299e-05 9.999481e-01
1.017077e-02 2.166551e-05 9.999483e-01
1.021668e-02 1.585030e-04 9.999478e-01
1.022630e-02 2.582715e-04 9.999477e-01
1.024743e-02 3.478542e-04 9.999474e-01
1.029481e-02 4.525675e-04 9.999469e-01
1.413032e-04 8.942173e-03 9.999600e-01
-3.205255e-04 7.547229e-03 9.999714e-01
-5.428677e-04 5.355357e-03 9.999855e-01
-9.138474e-04 2.801618e-03 9.999956e-01
-8.720972e-04 1.620678e-05 9.999996e-01
-9.020855e-04 -2.740124e-03 9.999958e-01
-5.085186e-04 -5.304790e-03 9.999858e-01
-2.588242e-04 -7.526157e-03 9.999716e-01
2.103542e-04 -8.936031e-03 9.999601e-01
-1.003044e-02 1.837543e-02 9.997808e-01
-1.055265e-02 1.510514e-02 9.998302e-01
-1.156110e-02 1.078311e-02 9.998750e-01
-1.177284e-02 5.532483e-03 9.999154e-01
-1.221640e-02 2.360951e-05 9.999254e-01
-1.172512e-02 -5.475622e-03 9.999163e-01
-1.146721e-02 -1.075025e-02 9.998764e-01
-1.046920e-02 -1.509083e-02 9.998313e-01
-9.972412e-03 -1.833526e-02 9.997821e-01
-1.934208e-02 2.689846e-02 9.994510e-01
-2.101214e-02 2.227220e-02 9.995311e-01
-2.168022e-02 1.544622e-02 9.996457e-01
-2.297371e-02 7.976435e-03 9.997042e-01
-2.269850e-02 8.596967e-06 9.997423e-01
-2.292335e-02 -7.964468e-03 9.997055e-01
-2.161968e-02 -1.544224e-02 9.996470e-01
-2.091895e-02 -2.225473e-02 9.995335e-01
-1.925882e-02 -2.684601e-02 9.994540e-01
-2.834568e-02 3.449954e-02 9.990026e-01
-2.905359e-02 2.738700e-02 9.992026e-01
-3.166563e-02 1.914300e-02 9.993152e-01
-3.153230e-02 9.602064e-03 9.994566e-01
-3.305330e-02 -3.000848e-05 9.994536e-01
-3.153056e-02 -9.663562e-03 9.994560e-01
-3.168438e-02 -1.916071e-02 9.993142e-01
-2.896350e-02 -2.733859e-02 9.992065e-01
-2.817697e-02 -3.438561e-02 9.990113e-01
4.517046e-02 3.908009e-02 9.982146e-01
3.760831e-02 3.008701e-02 9.988395e-01
2.907248e-02 2.075891e-02 9.993618e-01
1.963130e-02 1.057021e-02 9.997514e-01
1.022444e-02 5.155078e-04 9.999476e-01
8.733038e-04 -9.571373e-03 9.999538e-01
-8.458017e-03 -1.978591e-02 9.997684e-01
-1.680176e-02 -2.923810e-02 9.994313e-01
-2.421969e-02 -3.835564e-02 9.989706e-01
3.818019e-02 3.980514e-02 9.984778e-01
3.304461e-02 3.166056e-02 9.989523e-01
2.581789e-02 2.118075e-02 9.994423e-01
1.822726e-02 1.092366e-02 9.997742e-01
1.033305e-02 4.275589e-04 9.999465e-01
2.470076e-03 -1.006137e-02 9.999464e-01
-4.992646e-03 -2.036486e-02 9.997802e-01
-1.204250e-02 -3.092595e-02 9.994491e-01
-1.700323e-02 -3.915793e-02 9.990883e-01
2.998527e-02 4.247923e-02 9.986473e-01
2.622656e-02 3.230164e-02 9.991340e-01
2.148877e-02 2.207133e-02 9.995254e-01
1.600779e-02 1.104574e-02 9.998109e-01
1.043625e-02 3.104606e-04 9.999455e-01
4.920186e-03 -1.042758e-02 9.999335e-01
-4.244220e-04 -2.144450e-02 9.997699e-01
-4.970923e-03 -3.173647e-02 9.994839e-01
-8.530857e-03 -4.190952e-02 9.990850e-01
2.054130e-02 4.230793e-02 9.988934e-01
1.876805e-02 3.352978e-02 9.992615e-01
1.620664e-02 2.222483e-02 9.996216e-01
1.341051e-02 1.130625e-02 9.998462e-01
1.050860e-02 1.978745e-04 9.999447e-01
7.670970e-03 -1.091395e-02 9.999110e-01
5.055028e-03 -2.183621e-02 9.997488e-01
2.730366e-03 -3.314172e-02 9.994469e-01
1.194764e-03 -4.194119e-02 9.991193e-01
1.092368e-02 4.368657e-02 9.989856e-01
1.076577e-02 3.319003e-02 9.993911e-01
1.064994e-02 2.257428e-02 9.996884e-01
1.057003e-02 1.116951e-02 9.998817e-01
1.055670e-02 7.930632e-05 9.999443e-01
1.060754e-02 -1.102921e-02 9.998829e-01
1.071104e-02 -2.243744e-02 9.996909e-01
1.082897e-02 -3.305931e-02 9.993947e-01
1.090840e-02 -4.359726e-02 9.989896e-01
1.173284e-03 4.205013e-02 9.991148e-01
2.708798e-03 3.331916e-02 9.994411e-01
5.037463e-03 2.199213e-02 9.997454e-01
7.676408e-03 1.107651e-02 9.999092e-01
1.056487e-02 -6.197474e-05 9.999442e-01
1.348809e-02 -1.119719e-02 9.998463e-01
1.629998e-02 -2.213269e-02 9.996222e-01
1.886646e-02 -3.345621e-02 9.992621e-01
2.059949e-02 -4.217681e-02 9.988978e-01
-8.485887e-03 4.204072e-02 9.990799e-01
-4.931341e-03 3.191047e-02 9.994786e-01
-4.023924e-04 2.163886e-02 9.997658e-01
4.952302e-03 1.060178e-02 9.999315e-01
1.049037e-02 -2.151800e-04 9.999449e-01
1.608187e-02 -1.096874e-02 9.998105e-01
2.159425e-02 -2.204515e-02 9.995238e-01
2.637258e-02 -3.229150e-02 9.991305e-01
3.019550e-02 -4.240390e-02 9.986442e-01
-1.694396e-02 3.931025e-02 9.990834e-01
-1.199385e-02 3.110843e-02 9.994441e-01
-4.953777e-03 2.054132e-02 9.997767e-01
2.521497e-03 1.020130e-02 9.999448e-01
1.038185e-02 -3.551047e-04 9.999461e-01
1.829832e-02 -1.088794e-02 9.997733e-01
2.592064e-02 -2.118644e-02 9.994395e-01
3.321149e-02 -3.174414e-02 9.989441e-01
3.843508e-02 -3.992755e-02 9.984631e-01
-2.424603e-02 3.853852e-02 9.989629e-01
-1.678860e-02 2.941275e-02 9.994264e-01
-8.423273e-03 1.993005e-02 9.997659e-01
9.232052e-04 9.660927e-03 9.999529e-01
1.028494e-02 -4.990604e-04 9.999470e-01
1.971743e-02 -1.056824e-02 9.997497e-01
2.919491e-02 -2.078565e-02 9.993576e-01
3.779699e-02 -3.019764e-02 9.988291e-01
4.545561e-02 -3.933893e-02 9.981915e-01
-2.406637e-02 -3.841591e-02 9.989720e-01
-1.670021e-02 -2.933258e-02 9.994302e-01
-8.358520e-03 -1.986386e-02 9.997678e-01
9.855184e-04 -9.651758e-03 9.999529e-01
1.036348e-02 4.303384e-04 9.999462e-01
1.977385e-02 1.047880e-02 9.997495e-01
2.917998e-02 2.069198e-02 9.993600e-01
3.773262e-02 3.001889e-02 9.988369e-01
4.536152e-02 3.895443e-02 9.982108e-01
-1.675246e-02 -3.932450e-02 9.990860e-01
-1.183975e-02 -3.106666e-02 9.994472e-01
-4.847568e-03 -2.049343e-02 9.997782e-01
2.578564e-03 -1.015945e-02 9.999450e-01
1.043266e-02 3.204962e-04 9.999455e-01
1.833265e-02 1.079893e-02 9.997736e-01
2.592896e-02 2.109154e-02 9.994413e-01
3.315792e-02 3.157886e-02 9.989511e-01
3.829222e-02 3.966209e-02 9.984791e-01
-8.415999e-03 -4.216878e-02 9.990751e-01
-4.853205e-03 -3.192265e-02 9.994786e-01
-3.212219e-04 -2.160225e-02 9.997666e-01
5.009357e-03 -1.051972e-02 9.999321e-01
1.051825e-02 2.080548e-04 9.999447e-01
1.607496e-02 1.092297e-02 9.998111e-01
2.155013e-02 2.193845e-02 9.995270e-01
2.627944e-02 3.215444e-02 9.991373e-01
3.000358e-02 4.223897e-02 9.986569e-01
1.120506e-03 -4.213484e-02 9.991113e-01
2.682362e-03 -3.333613e-02 9.994406e-01
5.061930e-03 -2.198531e-02 9.997455e-01
7.728245e-03 -1.104353e-02 9.999092e-01
1.057637e-02 5.389324e-05 9.999441e-01
1.346958e-02 1.116261e-02 9.998470e-01
1.624076e-02 2.209514e-02 9.996240e-01
1.878017e-02 3.337313e-02 9.992665e-01
2.051721e-02 4.208890e-02 9.989032e-01
1.092423e-02 -4.373382e-02 9.989835e-01
1.076496e-02 -3.316816e-02 9.993918e-01
1.066258e-02 -2.254103e-02 9.996890e-01
1.060836e-02 -1.115452e-02 9.998815e-01
1.057269e-02 -7.737910e-05 9.999441e-01
1.059817e-02 1.101062e-02 9.998832e-01
1.068900e-02 2.241340e-02 9.996917e-01
1.078407e-02 3.299991e-02 9.993972e-01
1.085959e-02 4.342191e-02 9.989978e-01
2.051833e-02 -4.231261e-02 9.988937e-01
1.879025e-02 -3.348789e-02 9.992625e-01
1.623611e-02 -2.218634e-02 9.996220e-01
1.345532e-02 -1.130707e-02 9.998456e-01
1.053939e-02 -1.845498e-04 9.999444e-01
7.683145e-03 1.093467e-02 9.999107e-01
5.068715e-03 2.183245e-02 9.997488e-01
2.739049e-03 3.308422e-02 9.994488e-01
1.188351e-03 4.176961e-02 9.991266e-01
2.993392e-02 -4.242545e-02 9.986511e-01
2.623682e-02 -3.229981e-02 9.991338e-01
2.149897e-02 -2.206933e-02 9.995252e-01
1.601598e-02 -1.106651e-02 9.998105e-01
1.047336e-02 -2.961618e-04 9.999451e-01
4.990993e-03 1.047491e-02 9.999327e-01
-3.229063e-04 2.149624e-02 9.997689e-01
-4.809080e-03 3.170707e-02 9.994856e-01
-8.285629e-03 4.174924e-02 9.990938e-01
3.813175e-02 -3.978120e-02 9.984806e-01
3.300007e-02 -3.168522e-02 9.989530e-01
2.578921e-02 -2.115076e-02 9.994437e-01
1.822381e-02 -1.089547e-02 9.997746e-01
1.039289e-02 -3.972671e-04 9.999459e-01
2.594712e-03 1.011655e-02 9.999455e-01
-4.808027e-03 2.042194e-02 9.997799e-01
-1.177779e-02 3.094893e-02 9.994516e-01
-1.666898e-02 3.910031e-02 9.990963e-01
4.509581e-02 -3.902884e-02 9.982200e-01
3.752992e-02 -3.008728e-02 9.988425e-01
2.904226e-02 -2.073197e-02 9.993632e-01
1.965353e-02 -1.054792e-02 9.997512e-01
1.029310e-02 -4.916947e-04 9.999469e-01
9.932320e-04 9.613874e-03 9.999533e-01
-8.272426e-03 1.979686e-02 9.997698e-01
-1.652896e-02 2.923446e-02 9.994359e-01
-2.389152e-02 3.829797e-02 9.989807e-01
4.965378e-02 3.947580e-02 9.979861e-01
4.117703e-02 4.063206e-02 9.983253e-01
3.191101e-02 4.322508e-02 9.985556e-01
2.150823e-02 4.321511e-02 9.988343e-01
1.100883e-02 4.446282e-02 9.989504e-01
3.625914e-04 4.297249e-02 9.990762e-01
-1.024946e-02 4.281766e-02 9.990304e-01
-1.977480e-02 4.015301e-02 9.989979e-01
-2.862810e-02 3.901874e-02 9.988283e-01
5.082259e-02 3.080807e-02 9.982324e-01
4.307563e-02 3.262822e-02 9.985389e-01
3.259780e-02 3.336412e-02 9.989115e-01
2.211929e-02 3.471379e-02 9.991525e-01
1.101329e-02 3.434491e-02 9.993494e-01
-1.452860e-04 3.454137e-02 9.994032e-01
-1.086771e-02 3.305981e-02 9.993943e-01
-2.156596e-02 3.223855e-02 9.992475e-01
-2.969603e-02 3.036291e-02 9.990977e-01
5.341108e-02 2.132327e-02 9.983449e-01
4.384267e-02 2.192998e-02 9.987977e-01
3.378490e-02 2.305857e-02 9.991631e-01
2.239531e-02 2.326109e-02 9.994786e-01
1.103443e-02 2.371282e-02 9.996579e-01
-4.208914e-04 2.311976e-02 9.997326e-01
-1.197078e-02 2.281221e-02 9.996681e-01
-2.231801e-02 2.163658e-02 9.995168e-01
-3.220652e-02 2.098024e-02 9.992610e-01
5.348660e-02 1.063153e-02 9.985120e-01
4.527427e-02 1.117108e-02 9.989122e-01
3.404606e-02 1.144745e-02 9.993547e-01
2.284754e-02 1.185602e-02 9.996687e-01
1.101862e-02 1.177534e-02 9.998699e-01
-8.129656e-04 1.180574e-02 9.999300e-01
-1.221801e-02 1.136414e-02 9.998608e-01
-2.370694e-02 1.104883e-02 9.996579e-01
-3.226049e-02 1.045628e-02 9.994248e-01
5.483950e-02 -2.149532e-05 9.984952e-01
4.497626e-02 -3.725802e-05 9.989880e-01
3.459185e-02 -5.062095e-05 9.994015e-01
2.278790e-02 -5.047807e-05 9.997403e-01
1.105208e-02 -3.169283e-05 9.999389e-01
-7.513422e-04 -1.141386e-05 9.999997e-01
-1.271304e-02 9.556559e-06 9.999192e-01
-2.346454e-02 3.106115e-06 9.997247e-01
-3.368472e-02 -4.392088e-05 9.994325e-01
5.343344e-02 -1.068952e-02 9.985142e-01
4.524324e-02 -1.124593e-02 9.989127e-01
3.402646e-02 -1.153147e-02 9.993544e-01
2.285072e-02 -1.196490e-02 9.996673e-01
1.105741e-02 -1.188039e-02 9.998683e-01
-7.671360e-04 -1.188436e-02 9.999291e-01
-1.219709e-02 -1.141415e-02 9.998605e-01
-2.375931e-02 -1.110918e-02 9.996560e-01
-3.233666e-02 -1.055244e-02 9.994213e-01
5.331378e-02 -2.134058e-02 9.983497e-01
4.379417e-02 -2.196371e-02 9.987991e-01
3.374467e-02 -2.309472e-02 9.991636e-01
2.237230e-02 -2.332799e-02 9.994775e-01
1.107197e-02 -2.382447e-02 9.996548e-01
-3.525466e-04 -2.323673e-02 9.997299e-01